LAMMPS Description

17602 atoms
9440 bonds

4 atom types
1 bond types

-31.0 31.0 xlo xhi
-31.0 31.0 ylo yhi
-31.0 31.0 zlo zhi

Masses

1 1.0
2 1.0
3 1.0
4 1.0

Atoms

1 1 1 14.97 -19.2940595204 6.16761694131 11.9170931534
2 1 1 14.97 -19.7854851851 6.78954352232 12.5267718752
3 1 1 14.97 -19.7504089812 7.12603003703 13.4678066702
4 1 1 0.0 -19.723756999 6.31317462877 12.8859512267
5 1 1 14.97 -19.7158289995 6.56848387213 11.9191242841
6 1 1 0.0 -20.5814083786 6.58118439354 12.4197349464
7 1 1 14.97 -20.4735314339 6.52081501168 11.4274053124
8 1 1 14.97 -20.5804206726 6.29584143573 10.4589211459
9 1 1 14.97 -20.7067150442 6.29299935701 9.46693240891
10 1 1 14.97 -21.3004407568 6.95995323227 9.91711271331
11 1 1 14.97 -20.8447888956 6.84452564821 10.7997552538
12 1 1 0.0 -20.5105479101 6.5587190114 9.90164750417
13 1 1 0.0 -20.2797817051 5.79468756434 9.29915027881
14 1 1 14.97 -20.5341776399 5.15342638978 10.0230748704
15 1 1 14.97 -20.0025924113 4.3577472733 9.7327097757
16 1 1 14.97 -19.3793775989 4.63133152967 9.00007415525
17 1 1 14.97 -19.920520207 4.18889725837 8.28494018644
18 1 1 14.97 -19.8503138542 5.1031412146 7.88590502943
19 1 1 14.97 -19.5200348451 5.90788811309 8.37915770861
20 1 1 14.97 -20.278198963 6.16353057612 7.77929597337
21 1 1 0.0 -20.2208652067 6.13978972315 8.77736872236
22 1 1 14.97 -19.7208935768 6.67688433305 9.45674913809
23 1 1 14.97 -19.5431896819 7.34196455444 10.1820694983
24 1 1 0.0 -19.6330740928 7.37240971124 11.1775562561
25 1 1 14.97 -18.9964540496 7.96528237517 10.6843859763
26 1 1 14.97 -18.1241115907 7.56088991726 10.9591319944
27 1 1 0.0 -17.710985948 7.42683333581 11.8598850329
28 1 1 0.0 -17.9178010603 6.45279303544 11.9519339469
29 1 1 0.0 -17.8053710759 6.32885239498 12.9378336457
30 1 1 0.0 -18.7372919964 6.68055431442 13.0263161741
31 1 1 0.0 -18.523264623 6.6664975585 12.049589656
32 1 1 14.97 -18.7061542571 6.91716351547 11.0989488407
33 1 1 14.97 -19.5494425262 6.64718595817 10.634215569
34 1 1 0.0 -19.1280901862 6.00698306452 11.2765569585
35 1 1 14.97 -19.5276826875 5.51497181006 10.503090244
36 1 1 0.0 -19.960745406 4.61540366576 10.4462234201
37 1 1 14.97 -19.4716666144 5.186126674 9.78661961216
38 1 1 0.0 -19.8487238308 5.93405078931 10.3329138308
39 1 1 14.97 -20.2939607489 6.74840827718 10.7051851951
40 1 1 14.97 -21.1673760147 6.63941590743 11.1798076101
41 1 1 0.0 -20.9752055507 5.936345345 11.8644697874
42 1 1 14.97 -21.587038214 5.43989457608 11.2486797045
43 1 1 0.0 -22.5435884965 5.72278878755 11.3192659792
44 1 1 14.97 -22.5875296152 6.46593725317 11.9869481912
45 1 1 14.97 -22.2432661181 7.18832258158 11.3872465305
46 1 1 0.0 -22.9052911096 7.80651045793 10.9634934654
47 1 1 0.0 -22.7550667248 8.71474170217 10.572918708
48 1 1 14.97 -23.0726307941 9.66282807012 10.5898095569
49 1 1 0.0 -23.0548031089 10.423098963 9.94044806812
50 1 1 14.97 -24.0527169278 10.4872391583 9.94779961649
51 1 1 0.0 -24.3607067497 11.301063612 10.4405795148
52 1 1 14.97 -24.8300891509 11.8477566337 9.74717710535
53 1 1 14.97 -25.4400030364 11.9393746445 10.534330961
54 1 1 0.0 -25.0689960507 11.7210923972 11.4369419941
55 1 1 14.97 -25.1049291532 11.9017724954 12.4198272947
56 1 1 0.0 -25.9333099736 11.802519829 12.9711295028
57 1 1 14.97 -25.257497795 11.0825537247 13.1290114458
58 1 1 14.97 -25.1843880845 11.10845949 14.1259988387
59 1 1 0.0 -25.7100755218 11.8999043009 13.8141209307
60 1 1 0.0 -25.6063187581 11.5813587695 14.756332838
61 2 2 0.0 3.48888035666 -2.07520982461 15.1692929787
62 2 2 0.0 2.62137535329 -1.65575182947 14.901916728
63 2 2 0.0 2.21299943878 -1.08588589678 14.188837538
64 2 2 -14.97 2.71818934463 -0.302015313942 14.5498500979
65 2 2 0.0 3.66565792053 -0.403259920348 14.2464480093
66 2 2 -14.97 4.23467347203 -1.00876113929 14.8028557519
67 2 2 0.0 4.56618258226 -0.116234025091 15.1086286419
68 2 2 0.0 5.26207410675 0.374654700271 15.6328072808
69 2 2 -14.97 5.20319417995 0.492861930927 14.6415655318
70 2 2 -14.97 5.6134984329 1.09239314796 15.3287429033
71 2 2 -14.97 6.46515775101 0.791783822102 15.75805682
72 2 2 -14.97 6.65633793959 0.722752414682 14.7789323129
73 2 2 -14.97 7.0235379689 0.548574681645 15.6926205835
74 2 2 -14.97 7.12312516381 1.01814275708 16.5698823536
75 2 2 0.0 7.59540287166 0.183184888949 16.2873949642
76 2 2 -14.97 7.88579292986 -0.745668960826 16.0573859647
77 2 2 -14.97 8.58275474116 -1.34476103081 16.4515089471
78 2 2 -14.97 9.52834797433 -1.31929615389 16.7758621149
79 2 2 -14.97 9.24761968615 -0.61085204898 17.4233948001
80 2 2 0.0 9.34568196775 0.151458960055 16.783656014
81 2 2 -14.97 9.65738474846 -0.792893007555 16.678581099
82 2 2 -14.97 10.1408910739 -1.66561419637 16.6109101312
83 2 2 0.0 10.116085727 -1.5771682352 17.6066821968
84 2 2 0.0 9.755713423 -2.48221348111 17.3807952664
85 2 2 0.0 10.5848453419 -3.01740929377 17.2192226721
86 2 2 -14.97 9.70839518865 -2.67785520129 16.8778458316
87 2 2 0.0 9.72994549627 -3.40804516917 16.194941596
88 2 2 -14.97 9.68662087648 -3.32687820812 17.1907000515
89 2 2 -14.97 10.2740447134 -3.03883712717 17.9469841063
90 2 2 -14.97 10.9116445942 -3.74537906053 18.254009982
91 2 2 0.0 11.4202355805 -3.10039427465 17.6836330587
92 2 2 0.0 12.1463949521 -3.78700720587 17.648203557
93 2 2 -14.97 13.0774115663 -4.15194648373 17.6534368705
94 2 2 0.0 13.0315741393 -4.06992938192 18.6490131485
95 2 2 -14.97 13.3158200752 -4.96755452177 18.9858712139
96 2 2 0.0 13.5812883432 -4.07720136365 19.355733151
97 2 2 0.0 12.829204226 -4.64122129157 19.6966891621
98 2 2 0.0 13.3475747568 -3.79095622165 19.7880198997
99 2 2 -14.97 13.513258795 -4.47397224087 20.4993833209
100 2 2 -14.97 12.5463225288 -4.562554041 20.2602441944
101 2 2 -14.97 12.9492985927 -3.65132640617 20.1749535767
102 2 2 -14.97 12.8778292189 -3.60833838636 21.171469587
103 2 2 -14.97 13.1998613266 -4.00894896594 22.0292612197
104 2 2 -14.97 13.1648394953 -4.0614639926 21.0312553864
105 2 2 0.0 13.2089744463 -4.97137826287 21.4436970512
106 2 2 -14.97 12.6341960668 -4.66930618471 22.2042115311
107 2 2 0.0 12.6265012347 -4.72060721315 21.2055579405
108 2 2 -14.97 12.6949913438 -4.04095722962 20.4752258209
109 2 2 -14.97 12.1266899273 -4.68157786008 20.9915965287
110 2 2 -14.97 12.3708814864 -3.8073392121 21.4112121491
111 2 2 -14.97 12.2908447197 -3.85474598863 22.4068761052
112 2 2 0.0 11.7284286604 -4.32108941298 23.0896732837
113 2 2 -14.97 11.3775754523 -4.3704054475 24.0248042665
114 2 2 0.0 11.3555360384 -4.3721078117 25.0245599198
115 2 2 -14.97 11.0559549213 -5.04773129423 25.6981948833
116 2 2 -14.97 10.1780301155 -5.52600324645 25.6757454972
117 2 2 0.0 10.0717338035 -5.00204353761 26.5208297046
118 2 2 -14.97 10.2290047487 -4.77600524733 25.5594907731
119 2 2 -14.97 10.5865962428 -3.92457413539 25.1758328722
120 2 2 0.0 10.4250308634 -4.05404281855 26.1541653762
121 3 1 14.97 -9.00266252014 -5.90473219337 -21.9743216133
122 3 1 14.97 -9.08727730649 -6.27402621338 -21.0488691484
123 3 1 14.97 -8.27482219947 -6.77425444179 -20.749388901
124 3 1 0.0 -9.05115888142 -6.75861161275 -21.3795132206
125 3 1 14.97 -9.64286270494 -7.5411181517 -21.5733433053
126 3 1 0.0 -9.58047890897 -7.84995632383 -22.522409818
127 3 1 14.97 -8.9377642147 -7.83198837567 -21.7565149332
128 3 1 14.97 -8.66261374848 -8.62459189299 -22.3006398134
129 3 1 14.97 -9.54048465181 -8.96632570862 -22.6361404488
130 3 1 14.97 -9.72742030575 -8.87530986009 -23.614287256
131 3 1 14.97 -9.93779217576 -9.03489769761 -24.578795109
132 3 1 0.0 -8.99737507949 -9.05362464034 -24.9183020849
133 3 1 0.0 -8.49343934342 -8.98512776152 -24.0572812073
134 3 1 14.97 -8.50186829309 -9.28287718018 -25.0118880565
135 3 1 14.97 -8.51678143522 -9.90775223103 -24.2313057297
136 3 1 14.97 -8.39805209229 -10.0895648477 -25.2074448158
137 3 1 14.97 -8.23703526201 -11.0763783814 -25.1909332997
138 3 1 14.97 -8.53662693608 -11.265492158 -26.1260700856
139 3 1 14.97 -9.43912399596 -11.648591504 -25.9292606652
140 3 1 14.97 -9.44346916772 -11.4402080772 -26.9072982243
141 3 1 0.0 -9.99151955734 -11.6697239566 -26.1029579782
142 3 1 14.97 -10.0784440352 -11.0013058216 -26.8416469059
143 3 1 14.97 -10.8303294511 -11.6536821042 -26.9369018658
144 3 1 0.0 -11.4799045747 -11.4702991016 -26.1990517231
145 3 1 14.97 -10.495456839 -11.4680391229 -26.0233885562
146 3 1 14.97 -10.56109701 -11.4193750203 -25.0267325608
147 3 1 0.0 -10.8823749237 -10.4753146291 -24.9523653648
148 3 1 0.0 -10.4269110642 -11.1582547565 -24.3812739053
149 3 1 0.0 -10.7226605848 -11.9722797946 -24.8811693528
150 3 1 0.0 -9.76250741851 -11.8443813043 -25.1296605465
151 3 1 0.0 -10.045955324 -11.9505033318 -24.176562755
152 3 1 14.97 -10.5023978435 -12.1948002126 -23.32100489
153 3 1 14.97 -10.521358821 -12.2268327409 -24.3203118491
154 3 1 0.0 -10.0776745357 -11.9187892946 -23.4787338728
155 3 1 14.97 -9.90328420739 -12.8984902589 -23.379870159
156 3 1 0.0 -10.5773233052 -12.6863333922 -24.0874440128
157 3 1 14.97 -11.5289364275 -12.4028925797 -23.9687268225
158 3 1 0.0 -11.8352988549 -11.7151979791 -23.3105336902
159 3 1 14.97 -11.9433096509 -11.2059328676 -24.1643385357
160 3 1 14.97 -12.378248547 -11.2619187194 -25.0630563674
161 3 1 0.0 -13.2078581173 -10.7229143806 -24.9173776673
162 3 1 14.97 -13.4063766186 -10.8170828372 -23.9418149034
163 3 1 0.0 -13.7571709775 -11.6096203241 -24.4406411752
164 3 1 14.97 -14.4771302991 -11.3820152497 -25.0962740797
165 3 1 14.97 -14.9677154793 -11.0126012317 -24.3070596195
166 3 1 0.0 -14.8151906585 -11.8586518864 -23.7962421681
167 3 1 0.0 -14.9579496791 -11.7425430581 -24.7791656656
168 3 1 14.97 -14.338531958 -11.5029708869 -24.0315515529
169 3 1 0.0 -14.1782760527 -11.7854941533 -23.0857721659
170 3 1 14.97 -13.4437778191 -11.1070543866 -23.0705462728
171 3 1 0.0 -13.5791089047 -11.4747658687 -22.150506185
172 3 1 14.97 -13.2006030037 -12.0614320352 -21.4345759566
173 3 1 14.97 -14.1375960383 -11.7793891526 -21.228430703
174 3 1 0.0 -14.1139615733 -11.0681292607 -21.930962395
175 3 1 14.97 -14.9621965818 -10.5632608244 -21.7709460446
176 3 1 0.0 -15.9302347954 -10.3987461103 -21.9602524783
177 3 1 14.97 -15.2145768208 -10.1490471928 -21.307961045
178 3 1 14.97 -15.9178209065 -10.6622658391 -20.8159708244
179 3 1 0.0 -15.3849652619 -11.2850671706 -20.243097921
180 3 1 0.0 -15.4915800962 -11.194720312 -19.2529107052
181 4 2 0.0 26.1748398921 14.9481007172 -28.8756859411
182 4 2 0.0 26.5314396895 15.0263485988 -29.8066606204
183 4 2 0.0 27.4762537026 15.0439827328 -29.4795283564
184 4 2 -14.97 27.6732276044 15.255322372 -28.5221690514
185 4 2 0.0 26.8604063954 14.9065639327 -28.0555972637
186 4 2 -14.97 26.6585965214 14.0257125639 -28.4838187495
187 4 2 0.0 26.6030164448 14.0596111361 -29.4816973703
188 4 2 0.0 27.1242440746 13.6584906025 -28.7284218062
189 4 2 -14.97 27.3975807761 13.7424387625 -29.6866700799
190 4 2 -14.97 26.6699540715 13.0780321604 -29.8573254222
191 4 2 -14.97 25.6943155732 13.2550564395 -29.7277417605
192 4 2 -14.97 25.2325028733 13.9514200922 -30.2771111202
193 4 2 -14.97 26.0723718409 13.9936336694 -29.7359659169
194 4 2 -14.97 27.036284158 14.0193956353 -30.0009364174
195 4 2 0.0 26.4086661345 14.4897316601 -30.6213231036
196 4 2 -14.97 26.6924654318 15.4483740345 -30.6428348845
197 4 2 -14.97 25.8376482375 15.947042428 -30.7864224802
198 4 2 -14.97 25.1535859134 15.441820945 -30.2602951288
199 4 2 -14.97 25.0924386776 14.5956155736 -29.7309582937
200 4 2 0.0 25.2935992099 15.0942960091 -28.8878377427
201 4 2 -14.97 24.9529662736 16.0334260733 -28.8430725208
202 4 2 -14.97 25.4731886042 16.1977515668 -28.0049998158
203 4 2 0.0 25.6604066572 16.151059164 -28.986207857
204 4 2 0.0 25.7874484022 15.918073163 -29.9503540691
205 4 2 0.0 25.791655398 16.8983325955 -29.7526832666
206 4 2 -14.97 26.5171972471 16.5909678909 -29.136959332
207 4 2 0.0 26.4685637737 16.150567212 -30.0334424759
208 4 2 -14.97 26.0392986386 15.8659285786 -29.176288877
209 4 2 -14.97 25.9109664602 15.8605479649 -28.1845722335
210 4 2 -14.97 25.9406731988 15.8061178599 -27.1864966485
211 4 2 0.0 25.6364915382 14.8535247295 -27.1801843391
212 4 2 0.0 26.4232311436 14.4526954578 -26.7107413839
213 4 2 -14.97 26.5617454095 14.8754436896 -25.8151422936
214 4 2 0.0 26.1220773571 13.9839733418 -25.9245617736
215 4 2 -14.97 26.909917395 13.395234867 -25.7437439564
216 4 2 0.0 27.3849573469 13.2342929065 -26.6088651788
217 4 2 0.0 27.0124018735 13.9769181329 -27.1653812993
218 4 2 0.0 27.4985163757 14.1098106833 -26.3016497086
219 4 2 -14.97 27.3841551474 14.4139048888 -27.2474024372
220 4 2 -14.97 26.9059742349 15.0760558262 -26.6704283035
221 4 2 -14.97 27.423553746 15.9060514772 -26.8783193058
222 4 2 -14.97 27.6199972951 14.9268414014 -26.8277469879
223 4 2 -14.97 27.5197330679 14.7040160956 -27.7974355811
224 4 2 -14.97 27.0344707196 14.6192645428 -26.9271841074
225 4 2 0.0 26.7057669835 14.2295436729 -27.7874581901
226 4 2 -14.97 26.0828946905 14.6022477053 -27.0996196839
227 4 2 0.0 26.0005044362 15.2098751467 -26.3096825101
228 4 2 -14.97 26.4067378677 15.3595619461 -25.4082568275
229 4 2 -14.97 26.9150993173 14.5002219198 -25.4639645995
230 4 2 -14.97 26.6842830616 13.774499972 -24.8158507896
231 4 2 -14.97 26.5658293998 14.2014385863 -23.9193620001
232 4 2 0.0 27.1418264841 14.5271705011 -24.6691126777
233 4 2 -14.97 28.0499763354 14.3414914262 -25.0443287871
234 4 2 0.0 27.4656771604 14.4965826146 -25.8409097292
235 4 2 -14.97 28.1591223977 13.7847054308 -25.7297136045
236 4 2 -14.97 27.9099167118 14.7526389956 -25.7613544078
237 4 2 0.0 28.6691888706 15.2726698968 -25.370108129
238 4 2 -14.97 27.6881780326 15.240424327 -25.5613617799
239 4 2 -14.97 27.5102284685 16.0175247067 -26.1650578563
240 4 2 0.0 27.6274243948 15.6819180942 -25.2303743181
241 5 1 14.97 14.6603064233 -21.3358262656 14.2389720267
242 5 1 14.97 14.5049691428 -20.4563881212 14.688926335
243 5 1 14.97 15.2022729439 -20.779507855 14.0491130445
244 5 1 0.0 14.2036005636 -20.7280467479 14.0514002436
245 5 1 14.97 14.4859439489 -20.9586174225 14.9825926925
246 5 1 0.0 15.1450560784 -21.2317255252 15.6832946013
247 5 1 14.97 15.3072348164 -21.2931476273 14.6984467032
248 5 1 14.97 15.4131605837 -21.2145150088 13.7071865743
249 5 1 14.97 14.7452400194 -21.66143538 13.1120863294
250 5 1 14.97 14.2284780201 -22.2746515802 12.5146560591
251 5 1 14.97 13.8159392754 -22.9535278958 13.1220593291
252 5 1 0.0 13.7128998505 -22.9585731055 12.1273948516
253 5 1 0.0 14.4141542913 -23.5801103315 11.778204809
254 5 1 14.97 14.3756723923 -24.5727354986 11.8931588047
255 5 1 14.97 14.4981640822 -25.0364067511 11.0156596562
256 5 1 14.97 14.7865183313 -25.0189128024 11.9730236355
257 5 1 14.97 14.4255830543 -24.7707860403 12.8720001845
258 5 1 14.97 15.0364468736 -25.5542855548 12.9859032354
259 5 1 14.97 14.5978715945 -24.8716210803 13.5703867166
260 5 1 14.97 15.3474248912 -24.3354872266 13.9586267794
261 5 1 0.0 15.8981895875 -23.6427542585 13.4930311566
262 5 1 14.97 15.3219401722 -23.7084989457 14.3076563756
263 5 1 14.97 15.5442064262 -23.6113431698 15.2777895971
264 5 1 0.0 16.2481659344 -23.225250396 14.6816575808
265 5 1 14.97 15.8720437956 -23.0410391661 15.5897315642
266 5 1 14.97 16.3222674166 -23.075450229 16.4819840901
267 5 1 0.0 16.7905265463 -23.0525301963 15.5986902208
268 5 1 0.0 17.211732338 -22.5799187679 16.3727858988
269 5 1 0.0 17.3523342862 -22.3865617133 15.4017842811
270 5 1 0.0 18.1368635643 -22.9629587186 15.6304331475
271 5 1 0.0 18.029897184 -22.8897630517 16.6219978644
272 5 1 14.97 18.3776841116 -23.185049272 17.5118575731
273 5 1 14.97 18.809628181 -22.2864339639 17.434949517
274 5 1 0.0 18.950372878 -22.4154810573 16.4533499154
275 5 1 14.97 19.0663700189 -21.4310411984 16.3213543564
276 5 1 0.0 19.9783016156 -21.5683638821 15.9346720017
277 5 1 14.97 20.5848473768 -22.2871407726 16.2744690311
278 5 1 0.0 20.3502570606 -21.5164341962 16.8669036323
279 5 1 14.97 20.8493669934 -21.8909091886 17.648349571
280 5 1 14.97 20.6147647445 -22.8572834062 17.5430753747
281 5 1 0.0 20.1486961913 -22.9311776423 18.4247327603
282 5 1 14.97 19.7370906083 -22.0452709776 18.6386257839
283 5 1 0.0 19.9852108194 -22.0803294457 17.6705311271
284 5 1 14.97 19.1373217016 -21.7428982252 18.0794617023
285 5 1 14.97 19.2372977283 -22.2977719199 18.905367252
286 5 1 0.0 18.3599337703 -22.7632338671 18.7888440316
287 5 1 0.0 17.8346008645 -22.5770353229 19.6191183478
288 5 1 14.97 17.8403091871 -22.5615542086 20.6189822136
289 5 1 0.0 18.5947469798 -23.1893946055 20.8103981297
290 5 1 14.97 18.9076734209 -23.2542375393 21.7579594398
291 5 1 0.0 19.3529729208 -23.5790000038 22.592368031
292 5 1 14.97 19.7053561216 -23.1800084202 23.4389091085
293 5 1 14.97 20.4073274803 -22.9916362213 24.1257512492
294 5 1 0.0 19.9579161315 -22.2844129475 24.6715210547
295 5 1 14.97 20.1224456077 -22.4679395517 25.6406691532
296 5 1 0.0 20.6298338227 -22.0687148907 26.4043293325
297 5 1 14.97 19.6798413974 -22.3683979357 26.4921044113
298 5 1 14.97 19.0289014705 -22.7933384951 25.8630553413
299 5 1 0.0 18.7082469538 -23.296505565 26.6655536782
300 5 1 0.0 18.2558588734 -23.0152422491 25.819246422
301 6 2 0.0 20.723843966 -8.20269599517 -1.88803662265
302 6 2 0.0 21.0033649293 -7.39756983956 -2.41114263928
303 6 2 0.0 20.9567162521 -6.40052601484 -2.47219599695
304 6 2 -14.97 20.7257394497 -5.97921860902 -1.59518414607
305 6 2 0.0 19.8718842344 -5.4631569923 -1.66309349068
306 6 2 -14.97 19.7828957283 -5.44782942235 -0.667178779787
307 6 2 0.0 20.7097214816 -5.81523397557 -0.744689534946
308 6 2 0.0 21.5141957449 -6.32606392807 -0.44158242629
309 6 2 -14.97 22.2958376973 -6.7721324072 -0.00562512312834
310 6 2 -14.97 21.5336866452 -7.05513354638 0.576642967185
311 6 2 -14.97 22.081489083 -7.46577716518 -0.152249554061
312 6 2 -14.97 21.1948161587 -7.82543338195 -0.442867053668
313 6 2 -14.97 20.3242432961 -7.73895730399 -0.92724787382
314 6 2 -14.97 19.9542228147 -8.3302469694 -0.210685681913
315 6 2 0.0 19.639712823 -8.46986100278 0.728245298938
316 6 2 -14.97 19.2641213684 -9.25038964903 1.22795130414
317 6 2 -14.97 18.7190319594 -9.68600420669 1.94427350352
318 6 2 -14.97 19.1983864194 -8.96213965855 2.44049867174
319 6 2 -14.97 19.1980770594 -8.96880963961 3.44047637931
320 6 2 0.0 20.1267299025 -8.95094482835 3.81099594083
321 6 2 -14.97 19.8940175551 -8.28607232811 4.52077726054
322 6 2 -14.97 19.9371154379 -9.23462539135 4.20710600156
323 6 2 0.0 20.1334795706 -9.29672334718 3.22854329468
324 6 2 0.0 20.9578209441 -9.62883100121 2.77010485166
325 6 2 0.0 20.7698422334 -10.4290244304 2.20058357884
326 6 2 -14.97 20.6835632741 -10.9609738772 1.35821446304
327 6 2 0.0 21.2172489992 -11.5355740762 0.737719371877
328 6 2 -14.97 21.2905543805 -11.7062729441 -0.244873228112
329 6 2 -14.97 21.1885485423 -12.6783123613 -0.45637779145
330 6 2 -14.97 21.6893983294 -13.0683459283 -1.22905062481
331 6 2 0.0 21.625324933 -14.0611405297 -1.33031008962
332 6 2 0.0 21.1036861487 -13.5049962916 -1.97730047986
333 6 2 -14.97 21.1706044785 -13.6465617052 -0.989635976704
334 6 2 0.0 21.1540128267 -14.0822863007 -0.0897088719046
335 6 2 -14.97 20.7172429301 -13.9911370593 0.805234630878
336 6 2 0.0 20.6410700077 -14.0218377936 1.8018565004
337 6 2 0.0 20.7694566811 -13.4198037919 2.58993766556
338 6 2 0.0 20.3409687511 -13.2106475394 1.71093154734
339 6 2 -14.97 20.2255853853 -12.9597144511 2.67203469691
340 6 2 -14.97 20.706211194 -12.0882845241 2.57401064758
341 6 2 -14.97 21.4281182277 -11.4108713481 2.4327250373
342 6 2 -14.97 21.3996809128 -11.3771030079 3.43175007118
343 6 2 -14.97 21.4525169333 -10.3906386243 3.27652000012
344 6 2 -14.97 20.8124441859 -11.1527467127 3.1790616003
345 6 2 0.0 19.935551608 -11.0367404196 2.712583362
346 6 2 -14.97 20.3477338835 -11.4709972435 3.51353703271
347 6 2 0.0 20.4022505195 -11.1882842837 2.55588296221
348 6 2 -14.97 20.0529347771 -10.6459408284 3.31997856391
349 6 2 -14.97 20.3737636792 -10.8028158198 4.25403372964
350 6 2 -14.97 20.4249173039 -10.9590766535 5.24042404717
351 6 2 -14.97 20.0040124795 -11.7003437182 4.71758347144
352 6 2 0.0 20.1028735559 -11.3119608365 5.63376316168
353 6 2 -14.97 20.3448366564 -12.2530121705 5.39738159556
354 6 2 0.0 19.4036120213 -12.1719162807 5.06947971544
355 6 2 -14.97 19.8578017969 -13.0626173112 5.0504187076
356 6 2 -14.97 19.7730832929 -13.0617428268 6.04682324911
357 6 2 0.0 19.3013466316 -13.2418813603 6.90996554974
358 6 2 -14.97 19.8660100037 -13.5254835106 7.68503012543
359 6 2 -14.97 20.7875299071 -13.276341783 7.98290504407
360 6 2 0.0 20.7884751719 -13.2582910851 8.98274167011
361 7 1 14.97 10.2264538654 20.2683715382 -18.2348322132
362 7 1 14.97 10.2207785855 20.5215266516 -19.2022412683
363 7 1 14.97 10.9014969879 19.7890597205 -19.1915337296
364 7 1 0.0 11.1310265718 19.4174018484 -18.2919857341
365 7 1 14.97 11.1702118681 19.3653439631 -17.2941107473
366 7 1 0.0 11.3762234504 18.8464651981 -16.4644577746
367 7 1 14.97 12.0840015922 18.6718723642 -17.1489776386
368 7 1 14.97 12.5629608258 18.989240021 -16.3305182181
369 7 1 14.97 12.6784838309 19.9168611071 -15.975309046
370 7 1 14.97 12.758084193 20.5411773702 -15.1982035281
371 7 1 14.97 12.7539462517 21.2225804476 -15.9301001899
372 7 1 0.0 12.7710489347 20.465057473 -16.5826846222
373 7 1 0.0 13.500211935 20.1859047626 -17.2075006617
374 7 1 14.97 13.4300449061 20.1458318176 -16.2107706345
375 7 1 14.97 13.4734413569 20.1428189888 -15.2117172471
376 7 1 14.97 13.3871320876 19.6134838597 -14.3677059727
377 7 1 14.97 14.0990890629 20.1111053714 -13.8722364012
378 7 1 14.97 13.845452627 20.9628037844 -14.3307975985
379 7 1 14.97 14.4325010184 20.8738060536 -15.1354426072
380 7 1 14.97 14.4650091322 20.869415976 -14.1359807771
381 7 1 0.0 14.9061268174 21.3967078926 -13.409772527
382 7 1 14.97 14.9289942034 20.492785755 -12.9826872289
383 7 1 14.97 15.8142606621 20.9556008918 -12.9368020874
384 7 1 0.0 15.6465693509 21.9387819984 -12.8644519957
385 7 1 14.97 15.3366160476 21.8458241688 -11.9182555089
386 7 1 14.97 15.0058398572 21.7381312898 -12.8557998309
387 7 1 0.0 14.8269159488 22.132782653 -13.7570414946
388 7 1 0.0 14.1528898933 22.4238151471 -14.4360031753
389 7 1 0.0 14.0223052538 22.8001706039 -13.5187768008
390 7 1 0.0 13.3999855253 23.5526512367 -13.3031589611
391 7 1 0.0 13.9004063908 24.0227643974 -12.5761289937
392 7 1 14.97 14.6825695337 23.403267054 -12.642791273
393 7 1 14.97 14.6710839052 23.4276334679 -13.6424283863
394 7 1 0.0 15.478327474 22.9423525828 -13.3064815407
395 7 1 14.97 15.8443106842 23.0471461203 -12.3817790997
396 7 1 0.0 16.1551950995 22.2931670782 -12.9604555935
397 7 1 14.97 16.423408875 21.9245619051 -13.850507051
398 7 1 0.0 15.9940047175 21.0620346559 -14.1181986906
399 7 1 14.97 16.8528419133 21.4479891885 -14.4550039309
400 7 1 14.97 17.6464784848 20.992360786 -14.0518367804
401 7 1 0.0 16.7671074242 21.4410423105 -13.8924899032
402 7 1 14.97 16.7396528578 20.839731411 -14.6910332326
403 7 1 0.0 16.7571974685 20.275257821 -13.8657685763
404 7 1 14.97 16.8834989458 21.1853410852 -13.4710580635
405 7 1 14.97 17.041493264 21.2268411402 -12.4844905084
406 7 1 0.0 17.9467202137 20.8703915559 -12.2531728406
407 7 1 0.0 17.3483688891 20.3099734621 -11.6805409758
408 7 1 14.97 17.4865452636 19.9578167378 -10.7548558614
409 7 1 0.0 16.5222764915 20.0501784943 -11.0031601931
410 7 1 14.97 16.4475045843 19.6556658194 -11.9190034719
411 7 1 0.0 15.525782295 19.9860173694 -11.7157896073
412 7 1 14.97 15.7453923058 20.8240120736 -12.2153257109
413 7 1 14.97 16.5655108666 20.5416741341 -11.7176402339
414 7 1 0.0 17.1894267181 20.9877044354 -11.075934709
415 7 1 14.97 16.3490209905 21.5227354408 -11.1623062108
416 7 1 0.0 15.7161149174 20.8282915129 -10.8199941694
417 7 1 14.97 16.3617520708 20.6959285621 -10.0679085922
418 7 1 14.97 16.1655895272 20.4539059678 -9.11767424199
419 7 1 0.0 15.9633237617 21.1483401736 -8.42713119928
420 7 1 0.0 16.4822785929 20.9221436143 -7.60280056188
421 8 2 0.0 -28.8612268083 16.2540416953 12.5942555455
422 8 2 0.0 -29.0755976514 17.1880219775 12.8801330965
423 8 2 0.0 -28.6049226739 17.8457734581 12.2920616253
424 8 2 -14.97 -28.877111647 18.0503733233 11.3518211996
425 8 2 0.0 -28.122158619 17.976986896 12.0034808944
426 8 2 -14.97 -27.7903355575 18.7709106634 12.5129693707
427 8 2 0.0 -27.4780176827 19.6857620279 12.2570308509
428 8 2 0.0 -27.7809556327 20.4420052412 11.6770956814
429 8 2 -14.97 -27.0215183198 20.3640113437 11.0312072082
430 8 2 -14.97 -26.3307758421 20.0343943024 11.674812239
431 8 2 -14.97 -27.1761881619 19.638220294 11.3165886154
432 8 2 -14.97 -26.664317307 19.9869939983 10.5315121025
433 8 2 -14.97 -25.7782021475 20.0574209782 10.0734291791
434 8 2 -14.97 -25.3742133568 19.9786971012 10.9847993609
435 8 2 0.0 -25.0479893136 20.3859397219 10.1317276631
436 8 2 -14.97 -25.4918029653 20.6627239502 10.9840303872
437 8 2 -14.97 -25.222859794 21.1103210475 10.1311960486
438 8 2 -14.97 -24.7715141444 21.7170815806 9.47688055893
439 8 2 -14.97 -24.4935757877 21.9602948375 10.4061800702
440 8 2 0.0 -25.2240295655 22.4685626129 9.94999902379
441 8 2 -14.97 -24.4079691335 22.1602024434 9.46116431011
442 8 2 -14.97 -24.3676852351 21.6489873012 8.6026561355
443 8 2 0.0 -25.1823558126 21.9727751428 8.12153943061
444 8 2 0.0 -25.1488087981 21.9798847054 9.12095128362
445 8 2 0.0 -25.5741823131 21.4612847633 8.37925628373
446 8 2 -14.97 -25.9892529369 21.8021452449 7.5357336051
447 8 2 0.0 -25.4656065646 21.0679127792 7.96781827636
448 8 2 -14.97 -25.4328935635 20.9667137038 6.97349005756
449 8 2 -14.97 -25.7284569867 21.0332786808 6.02048881587
450 8 2 -14.97 -26.4897571573 20.7486892452 6.60309580475
451 8 2 0.0 -26.9761194658 20.5623066705 5.74944878128
452 8 2 0.0 -27.1983303853 19.9158251623 6.47930079843
453 8 2 -14.97 -27.3775194545 19.6500958037 5.532052581
454 8 2 0.0 -28.0290767922 19.052558155 5.9994087556
455 8 2 -14.97 -28.9308141041 19.2331832889 6.39214834024
456 8 2 0.0 -28.756464234 19.4040172715 7.36189978941
457 8 2 0.0 -28.2627316907 19.8135018395 8.12907028174
458 8 2 0.0 -28.5748657442 20.2313987172 7.27587948702
459 8 2 -14.97 -29.5011354227 20.1656135831 6.90480429394
460 8 2 -14.97 -30.1267824847 20.6619369043 6.30294973129
461 8 2 -14.97 -29.1771261806 20.6760598644 6.6159248839
462 8 2 -14.97 -29.5021378886 21.5185331328 7.04558309881
463 8 2 -14.97 -29.4525362555 21.4357289685 6.05025242593
464 8 2 -14.97 -28.5355922846 21.5478455971 5.66731167894
465 8 2 0.0 -28.1850408985 20.6967143211 5.2765569263
466 8 2 -14.97 -28.0086626993 20.6239341988 6.25818505581
467 8 2 0.0 -28.9401131821 20.3478992806 6.02110970509
468 8 2 -14.97 -29.0654239062 20.0173416872 5.08567991089
469 8 2 -14.97 -28.4989128388 20.0471085512 5.90919624003
470 8 2 -14.97 -27.9707480951 19.44752425 6.51047876032
471 8 2 -14.97 -27.7326554237 18.549520332 6.14047762106
472 8 2 0.0 -28.2085275219 17.6866827801 6.31093906885
473 8 2 -14.97 -28.6930619084 16.9121698626 6.71757916638
474 8 2 0.0 -28.899879115 15.9371100221 6.7981083573
475 8 2 -14.97 -28.0455106134 16.3510568301 6.48393881141
476 8 2 -14.97 -27.2194910695 15.8973469072 6.14951539866
477 8 2 0.0 -27.0022429012 15.8846789375 5.17348120054
478 8 2 -14.97 -26.1558588493 16.2313355169 4.76917531043
479 8 2 -14.97 -26.7956073798 16.8799379021 5.18153045308
480 8 2 0.0 -27.0994611125 17.2677479467 6.0517466782
481 9 1 14.97 -4.9056110488 -8.93893964564 -2.39533259646
482 9 1 14.97 -4.62770364488 -8.65289023321 -3.31236215351
483 9 1 14.97 -4.77356723873 -8.61534806249 -4.30095428245
484 9 1 0.0 -5.70516320748 -8.90957064147 -4.087501653
485 9 1 14.97 -6.11439870185 -9.42399681142 -3.33391554257
486 9 1 0.0 -5.46311360047 -10.1324371617 -3.06199646129
487 9 1 14.97 -5.23891599212 -9.91532919343 -2.11194406141
488 9 1 14.97 -5.34911929643 -9.1269636107 -2.71720015572
489 9 1 14.97 -5.39540490041 -9.13259258893 -3.71611254301
490 9 1 14.97 -4.92491908012 -10.004309516 -3.85305301184
491 9 1 14.97 -4.45611212797 -10.2125801299 -2.99465718649
492 9 1 0.0 -4.45089868215 -10.2217434053 -3.99460161213
493 9 1 0.0 -4.88090439405 -9.6441986647 -3.30067282595
494 9 1 14.97 -4.6012073395 -9.508038696 -4.25105696965
495 9 1 14.97 -3.71293382951 -9.79744394763 -4.60772876806
496 9 1 14.97 -4.04929828018 -9.04540632264 -5.17456063636
497 9 1 14.97 -3.93083783572 -8.35163297485 -4.46417646917
498 9 1 14.97 -3.05994573609 -8.82330393523 -4.32606978598
499 9 1 14.97 -2.62989727575 -9.03358953351 -3.44809581774
500 9 1 14.97 -2.42704703488 -9.0615102742 -4.42690745029
501 9 1 0.0 -2.26601314621 -9.31168705498 -5.38162189192
502 9 1 14.97 -1.57389020726 -9.64696812532 -4.74244082114
503 9 1 14.97 -1.37798872076 -9.60845928953 -3.76257364792
504 9 1 0.0 -1.88393015036 -10.4677526941 -3.8376610281
505 9 1 14.97 -1.83840281144 -10.3286287027 -4.82688889691
506 9 1 14.97 -2.31708756102 -10.0672133347 -5.66505529798
507 9 1 0.0 -1.3313269319 -9.92918319641 -5.56901539481
508 9 1 0.0 -0.674116767706 -10.3040370722 -6.22289563759
509 9 1 0.0 -0.913474283813 -9.88077387992 -7.09671269484
510 9 1 0.0 -1.04870070284 -9.34648358446 -6.26229811217
511 9 1 0.0 -1.98585585746 -9.14971945819 -5.97415909228
512 9 1 14.97 -2.47368914468 -8.47938241182 -5.41499281276
513 9 1 14.97 -3.05386381011 -8.23358562882 -4.63847410787
514 9 1 0.0 -2.65052377239 -8.27825296114 -3.72451478525
515 9 1 14.97 -3.36349503707 -8.4549718938 -3.0459557277
516 9 1 0.0 -3.42729976489 -9.4512794782 -2.9885087611
517 9 1 14.97 -3.93845671383 -10.2065995138 -3.3986431506
518 9 1 0.0 -3.96378121307 -11.2006649376 -3.50443824929
519 9 1 14.97 -3.89368581839 -11.2552877892 -2.50839458573
520 9 1 14.97 -3.34749835172 -11.9607271564 -2.0566927476
521 9 1 0.0 -3.07578827917 -11.4162043789 -1.26317615593
522 9 1 14.97 -3.68738181177 -10.9634690466 -1.91200900791
523 9 1 0.0 -3.26083084798 -11.0477909345 -2.81253335212
524 9 1 14.97 -2.2844846062 -10.8409345187 -2.87544948224
525 9 1 14.97 -1.53785063648 -11.5050081457 -2.91474239808
526 9 1 0.0 -1.07718067427 -12.2164013856 -3.44549925786
527 9 1 0.0 -1.13416235014 -12.1945362956 -4.4436350234
528 9 1 14.97 -0.83217643591 -11.798101787 -5.31060917989