LAMMPS (29 Mar 2019)
  using 1 OpenMP thread(s) per MPI task
  using 1 OpenMP thread(s) per MPI task
Reading restart file ...
  restart file = 29 Mar 2019, LAMMPS = 29 Mar 2019
  restoring atom style full from restart
  orthogonal box = (-31 -31 -31) to (31 31 31)
  2 by 2 by 4 MPI processor grid
  restoring pair style lj/cut from restart
  restoring bond style harmonic from restart
  17602 atoms
  9440 bonds
Finding 1-2 1-3 1-4 neighbors ...
  special bond factors lj:   0          1          1         
  special bond factors coul: 1          1          1         
  2 = max # of 1-2 neighbors
  6 = max # of special neighbors
  special bonds CPU = 0.00299859 secs
  read_restart CPU = 0.0163741 secs
PPPM initialization ...
  using 12-bit tables for long-range coulomb (src/kspace.cpp:319)
  G vector (1/distance) = 0.162332
  grid = 36 36 36
  stencil order = 5
  estimated absolute RMS force accuracy = 9.61493e-06
  estimated relative force accuracy = 9.61493e-06
  using single precision FFTs
  3d grid and FFT values/proc = 7406 3888
Neighbor list info ...
  update every 1 steps, delay 10 steps, check yes
  max neighbors/atom: 10000, page size: 100000
  master list distance cutoff = 20.3
  ghost atom cutoff = 20.3
  binsize = 10.15, bins = 7 7 7
  1 neighbor lists, perpetual/occasional/extra = 1 0 0
  (1) pair lj/cut/coul/long, perpetual
      attributes: half, newton on
      pair build: half/bin/newton
      stencil: half/bin/3d/newton
      bin: standard
Setting up Verlet run ...
  Unit style    : lj
  Current step  : 2001000
  Time step     : 0.001
Per MPI rank memory allocation (min/avg/max) = 18.5 | 20.1 | 21.58 Mbytes
Step Temp Press PotEng E_vdwl E_coul E_bond KinEng TotEng Enthalpy 
 2001000    2.9906279   0.18501208    3.7999502   0.06018628     1.633488   0.83149272     4.485687    8.2856371    10.790668 
 2010000    3.4324074   0.12282946   0.74577652  0.075621751 -0.0065257287   0.85387511    5.1483185     5.894095    7.5571844 
 2020000    3.0527888  0.078970943   0.66922999  0.071730091  -0.05046777   0.82972068    4.5789231    5.2481531    6.3174058 
 2030000    2.9420426   0.11547242    0.6265282  0.068963117 -0.081418654   0.82341358    4.4128132    5.0393414    6.6028178 
 2040000    2.9320977  0.081160898   0.60683953  0.066739173 -0.083078214   0.80650479    4.3978966    5.0047362    6.1036405 
 2050000    2.9495506  0.042556535   0.57544843  0.062944882  -0.10019506   0.79698523    4.4240746     4.999523    5.5757311 
 2060000    2.9261974  0.083411977   0.58271307   0.06570665 -0.092859588   0.79348512    4.3890467    4.9717597    6.1011433 
 2070000    2.9157487  0.068098867   0.57816866  0.068647424  -0.10218465    0.7979426    4.3733746    4.9515433      5.87359 
 2080000    2.9261424  0.078050083   0.55198599  0.069992395  -0.11219636   0.77911099    4.3889643    4.9409503    5.9977347 
 2090000    2.9132659  0.060123653   0.58973604  0.067379074 -0.087680855   0.79524268    4.3696506    4.9593866    5.7734504 
 2100000    2.8951258   0.11667819    0.5628742   0.06352751  -0.10228608   0.78877612     4.342442    4.9053162    6.4851184 
 2110000    2.8536127   0.11530494    0.5412489  0.068653863  -0.10330697   0.76341927    4.2801759    4.8214248    6.3826335 
 2120000    2.8875198  0.053575526   0.54967684  0.069322531  -0.11264408   0.77938814    4.3310337    4.8807105    5.6061138 
 2130000    2.8850699  0.084726007   0.55472432  0.070271796  -0.10370955   0.77200781    4.3273591    4.8820834    6.0292587 
 2140000    2.8754824  0.098416452   0.55642454  0.073575113  -0.11490607   0.78538547    4.3129786    4.8694031    6.2019447 
 2150000     2.852672   0.10843092   0.53737028   0.06851362  -0.11482284   0.77036847    4.2787649    4.8161352    6.2842709 
 2160000    2.8307946  0.026667593   0.54427231  0.065319644  -0.10938267   0.77471009    4.2459506    4.7902229    5.1512975 
 2170000    2.8593975   0.12839021   0.52937302  0.064483232  -0.11228278   0.76388582    4.2888526    4.8182256    6.5566065 
 2180000     2.822279   0.11436201   0.51745261  0.064566419  -0.10926177   0.74784474     4.233178    4.7506306    6.2990721 
 2190000    2.8118016  0.078120027   0.52334821  0.064125366  -0.12045681   0.76575104    4.2174628     4.740811    5.7985425 
 2200000    2.8101747  0.099443167    0.5070179  0.072293858  -0.12762845   0.74877629    4.2150226    4.7220405    6.0684836 
 2210000    2.8099485  0.068812025   0.52548566  0.069272775  -0.11711833   0.76061233    4.2146833    4.7401689    5.6718717 
 2220000    2.7855384   0.10356615   0.49573469  0.068702608  -0.12892651    0.7425109    4.1780702    4.6738049    6.0760723 
 2230000    2.7875109   0.12706166   0.48843902  0.065387508   -0.1351815   0.74481055    4.1810289    4.6694679    6.3898605 
 2240000    2.7714022  0.086433081    0.4949109  0.062295863  -0.13556595    0.7543688    4.1568672    4.6517781    5.8220668 
 2250000    2.7645026   0.11017938   0.47096411  0.064136824  -0.12878921   0.72321172    4.1465182    4.6174824    6.1092918 
 2260000    2.7577478  0.058025255   0.47375199  0.067453086  -0.14161792   0.73425856    4.1363867    4.6101387    5.3957905 
 2270000    2.7494244  0.057929354   0.49330967  0.064449333  -0.12247995   0.73832627    4.1239023    4.6172119    5.4015653 
 2280000    2.7238894  0.092376713   0.47045217  0.067760645  -0.13057616   0.72143037     4.085602    4.5560541    5.8068187 
 2290000    2.6853504  0.081517903   0.46355589  0.063560644  -0.13412665   0.71857424    4.0277968    4.4913527    5.5950908 
 2300000    2.6859077     0.100782   0.46290928  0.072500621  -0.12964571   0.70754982    4.0286327     4.491542    5.8561127 
 2310000     2.703705  0.069005646   0.45592471  0.066357382   -0.1396852   0.71645189    4.0553271    4.5112519    5.4455762 
 2320000    2.6953821  0.079642702   0.46326381  0.067315306  -0.14615728   0.72954759    4.0428434    4.5061072    5.5844555 
 2330000    2.6931494  0.084539654   0.48363699   0.07037268   -0.1413316   0.74045011    4.0394945    4.5231315    5.6677836 
 2340000    2.6522978  0.082222409   0.46374984   0.06684305  -0.13597205   0.71947068    3.9782207    4.4419706    5.5552476 
 2350000    2.6733439  0.085745889   0.45580463  0.065080993  -0.13814639   0.71526704    4.0097881    4.4655927     5.626577 
 2360000    2.6437439  0.072689387   0.44442991  0.058300951  -0.14492624   0.71726707    3.9653906    4.4098205    5.3940221 
 2370000    2.6443602  0.086509483   0.45182339  0.065681562  -0.14598003   0.71997266     3.966315    4.4181384    5.5894617 
 2380000    2.6413655   0.06192058   0.43983812  0.061813289  -0.13954173   0.70395966    3.9618232    4.4016613    5.2400552 
 2390000    2.6237871  0.083419135   0.43967098  0.061000488  -0.14394316   0.70942684     3.935457     4.375128    5.5046085 
 2400000    2.6386953  0.084010182    0.4107844   0.05964195  -0.15802665   0.69619956    3.9578181    4.3686025    5.5060857 
 2410000    2.6081575   0.12104368   0.45164371  0.069931046  -0.14555274   0.71403544     3.912014    4.3636578     6.002568 
 2420000    2.6089998  0.054624193   0.41719359  0.061109687  -0.16047163   0.70329819    3.9132773    4.3304709    5.0700729 
 2430000    2.5736537  0.080314139   0.41602119  0.068781664  -0.15072744   0.68483883    3.8602612    4.2762824    5.3637218 
 2440000    2.5742549  0.096976303    0.4107238  0.067178889   -0.1720067   0.70460731    3.8611631    4.2718868     5.584929 
 2450000     2.527173   0.11080762   0.39723537   0.06212734  -0.16260358   0.68501603    3.7905442    4.1877796    5.6880954 
 2460000     2.509776  0.053222885   0.43309045  0.064553354   -0.1374667   0.69307565    3.7644501    4.1975406    4.9181691 
 2470000    2.5264768  0.083414676   0.41355379   0.06064288  -0.15590222   0.69683084    3.7894999    4.2030537    5.3324738 
 2480000    2.5335036  0.096449739   0.37760591  0.059352238  -0.16537984   0.67208003    3.8000396    4.1776455    5.4835581 
 2490000    2.5250589  0.067992074      0.38431  0.062262345  -0.16857784   0.67921435    3.7873731    4.1716831    5.0922839 
 2500000    2.5304459  0.098998622   0.38777105  0.066776601   -0.1581612   0.66739217    3.7954533    4.1832243    5.5236484 
 2510000    2.4751487  0.087231313   0.38564415  0.066907663  -0.16959219   0.67600346    3.7125121    4.0981562    5.2792529 
 2520000    2.4881995    0.1210971   0.38119827  0.062282851  -0.16827692   0.67432969    3.7320872    4.1132854     5.752919 
 2530000    2.4698403  0.071192231    0.3835924  0.063921146  -0.17496928    0.6830191      3.70455    4.0881424    5.0520727 
 2540000    2.4606576  0.035254429   0.37369337  0.056307548  -0.16492173   0.67016925    3.6907767    4.0644701    4.5418089 
 2550000    2.4599539   0.10605678   0.33020581  0.061461115  -0.19014246   0.64693023    3.6897212     4.019927    5.4559172 
 2560000    2.4528854  0.087342554   0.33983025  0.061223889  -0.17146633   0.63742669     3.679119    4.0189493    5.2015522 
 2570000    2.4530436   0.07617208   0.33544009  0.064634288  -0.18143921   0.64156286    3.6793563    4.0147964     5.046153 
 2580000    2.4054324  0.042136782   0.35039433  0.064618164  -0.18564652   0.65981869    3.6079435    3.9583379    4.5288625 
 2590000    2.4037612  0.047785307   0.33572228  0.060145018  -0.18422468   0.64975099     3.605437    3.9411592     4.588164 
 2600000    2.3915261  0.054247039   0.34960102  0.059805041  -0.19574764   0.67529943    3.5870853    3.9366864    4.6711818 
 2610000    2.4073751  0.064583773   0.33021602   0.06057287  -0.18229105   0.63993989    3.6108576    3.9410736    4.8155266 
 2620000    2.3900653  0.070634484    0.3424582  0.060473514  -0.18214557   0.65316731    3.5848943    3.9273525    4.8837311 
 2630000    2.3846286  0.020899675   0.33529747  0.059362633  -0.18553172   0.65059626    3.5767397    3.9120371    4.1950151 
 2640000    2.3634336   0.05701963   0.31957034  0.059998353  -0.18070738   0.63018057     3.544949    3.8645193    4.6365551 
 2650000     2.381928  0.038087648   0.30649462  0.062110271  -0.20186515   0.63592804     3.572689    3.8791836    4.3948837 
 2660000    2.3233241  0.097612022   0.30354321  0.056704872  -0.19562945   0.63196804    3.4847882    3.7883314    5.1099811 
 2670000    2.3386011  0.085094143   0.30718848  0.056804937  -0.19233633   0.63110982    3.5077024    3.8148908    4.9670506 
 2680000    2.3343795  0.077751646   0.31074874  0.056325973  -0.19297586   0.63537017    3.5013703    3.8121191    4.8648628 
 2690000    2.3107097   0.10516733   0.29716723  0.058183874  -0.19941269   0.62675512    3.4658676    3.7630348    5.1869821 
 2700000    2.3212728   0.10629378   0.29491621  0.056275124  -0.20247086   0.62943838    3.4817115    3.7766277    5.2158268 
 2710000    2.3006003  0.066065086    0.2881253  0.060746658  -0.20301174   0.61868509    3.4507044    3.7388297    4.6333394 
 2720000    2.3002587  0.044840516   0.28645349  0.055093129  -0.20128094   0.62087739     3.450192    3.7366455    4.3437782 
 2730000    2.2764955  0.071856024   0.29933491  0.057992898  -0.19841927   0.62841491    3.4145493    3.7138842    4.6868022 
 2740000    2.2830848  0.060841591   0.28222035  0.056695713  -0.20932261   0.62388168    3.4244327     3.706653    4.5304375 
 2750000    2.2569139  0.052123964   0.26598477  0.057655587  -0.20743179   0.60678851    3.3851785    3.6511632    4.3569126 
 2760000    2.2423489  0.054355786   0.28865703  0.062887226  -0.21054933   0.62551046    3.3633323    3.6519894    4.3879572 
 2770000    2.2149251  0.039106927   0.26374553  0.059023096  -0.22584609   0.62093938    3.3221989    3.5859445    4.1154454 
 2780000    2.1988055  0.047038743   0.26440449  0.056088631  -0.20984069   0.60765353    3.2980208    3.5624253    4.1993216 
 2790000    2.2188416  0.067264532   0.24897825  0.062069047  -0.22447539   0.60000634    3.3280733    3.5770515    4.4878015 
 2800000    2.2250247  0.084431361   0.24828105  0.059632409  -0.20778228   0.58592967    3.3373474    3.5856284    4.7288143 
 2810000    2.1893358   0.03489687   0.26679543  0.058695577  -0.21649479   0.61437657    3.2838172    3.5506126    4.0231101 
 2820000    2.1729674  0.048801739   0.22940278  0.054436221  -0.21826385   0.58270356    3.2592659    3.4886686    4.1494356 
 2830000    2.1712477  0.053148232    0.2508397  0.057694377   -0.2119682    0.5941784    3.2566865    3.5075262     4.227144 
 2840000    2.1602351  0.036861518   0.25477358  0.059658334  -0.21454656   0.60005654    3.2401686    3.4949422    3.9940407 
 2850000    2.1552087  0.075520408   0.22242368  0.056090283  -0.21678405   0.57320588    3.2326293     3.455053    4.4775861 
 2860000    2.1372609  0.088471283   0.21229989  0.059312818  -0.22746109   0.57085593    3.2057093    3.4180091    4.6158948 
 2870000    2.1494183  0.069356644   0.21912537  0.056851863   -0.2272626   0.57915395    3.2239443    3.4430697    4.3821465 
 2880000    2.1560847  0.074476043   0.20897693   0.05207683  -0.21826277   0.56363663    3.2339433    3.4429202    4.4513128 
 2890000    2.1235345   0.03589641     0.213071   0.06066544  -0.23006531   0.57307751    3.1851208    3.3981918     3.884223 
 2900000     2.087156  0.076627325    0.2268169  0.052913609  -0.21489884   0.57755696    3.1305561     3.357373    4.3948936 
 2910000    2.0900021  0.065831745   0.21080176  0.053051908  -0.23370066   0.58162349    3.1348251    3.3456268    4.2369771 
 2920000    2.0945375   0.10252697   0.17118916  0.057890659   -0.2477348   0.55148082    3.1416277    3.3128169    4.7010141 
 2930000    2.0714064  0.045726455    0.1774744  0.054959407  -0.24814554   0.56147612     3.106933    3.2844074    3.9035356 
 2940000    2.0860497  0.034547232   0.16730935  0.058538142  -0.24244695   0.54218627    3.1288968    3.2962061    3.7639696 
 2950000     2.060286   0.04754522   0.15842418  0.055684438  -0.25065628   0.54500546    3.0902535    3.2486776    3.8924316 
 2960000    2.0431642  0.015649405   0.18162138  0.059640079  -0.24383371    0.5561411    3.0645722    3.2461936    3.4580838 
 2970000    2.0286955  0.068676756   0.18041257   0.05788291  -0.23965099   0.55272217    3.0428703    3.2232829    4.1531542 
 2980000    2.0392238  0.092148847   0.14673598  0.050953639   -0.2611696   0.54718929    3.0586619    3.2053979    4.4530771 
 2990000    2.0172575   0.06293618   0.14986857  0.048760719  -0.25233523   0.54448811    3.0257144    3.1755829    4.0277278 
 3000000    1.9970985  0.033239876   0.13608817  0.054046301  -0.26023151   0.53278948    2.9954775    3.1315657    3.5816278 
 3010000    1.9947017  0.059598086   0.15218434  0.057057956  -0.25512568   0.53996274    2.9918826    3.1440669    3.9510146 
 3020000    1.9938565  0.053586343    0.1311067  0.057930768  -0.26774492   0.53055139    2.9906148    3.1217215    3.8472712 
 3030000    1.9899193  0.057715182   0.14185853  0.052237333  -0.24843328   0.52806664    2.9847094    3.1265679    3.9080214 
 3040000    1.9713753  0.086831914    0.1244666  0.054481519  -0.26942294   0.52918422     2.956895    3.0813616    4.2570505 
 3050000    1.9611945  0.064707905   0.13281867  0.051178588  -0.25993117    0.5315148    2.9416247    3.0744433    3.9505771 
 3060000    1.9342604  0.046080018   0.12047888  0.052328413  -0.26776562   0.52760202    2.9012257    3.0217046      3.64562 
 3070000    1.9352694  0.061318381   0.12001058  0.053289423  -0.26807437   0.52585946    2.9027391    3.0227497    3.8529899 
 3080000    1.9256541  0.052960644   0.10309049  0.048374699  -0.26556695   0.51053171    2.8883171    2.9914076    3.7084854 
 3090000    1.8979645  0.035753727   0.11717644  0.056286992  -0.27067884   0.52216602     2.846785    2.9639615    3.4480607 
 3100000    1.9115861  0.058342715  0.098455763  0.053897371  -0.28069707   0.51617374    2.8672162     2.965672    3.7556221 
 3110000    1.8963671  0.092653883  0.095217391   0.05489315  -0.27072332   0.50150277     2.844389    2.9396064    4.1941237 
 3120000    1.8957498  0.053304812  0.085986025  0.048045933  -0.27737958   0.50631377    2.8434632    2.9294492     3.651187 
 3130000    1.8776268  0.038433104  0.081842728  0.053553294  -0.28223551   0.50283385    2.8162802    2.8981229    3.4185005 
 3140000    1.8741498  0.058673775  0.085099433  0.054278907   -0.2825024   0.50343213     2.811065    2.8961645    3.6905971 
 3150000    1.8599161  0.044432481  0.083214524  0.049777826  -0.28531623   0.51064762    2.7897156    2.8729301    3.4745382 
 3160000     1.838785  0.079343382  0.054792285  0.052630496   -0.2949702   0.48888964    2.7580208    2.8128131    3.8871086 
 3170000    1.8405489  0.054928513  0.050954361  0.049213248  -0.28850601   0.48141675    2.7606665    2.8116209    3.5553433 
 3180000    1.8245292  0.072798036  0.076770709  0.052783573  -0.29506638   0.51037067    2.7366383     2.813409    3.7990817 
 3190000    1.8296621  0.021767008  0.050449081  0.052810444  -0.30016506   0.48952801    2.7443372    2.7947863    3.0895078 
 3200000     1.808859  0.059740576  0.054581468  0.052224686  -0.29247246   0.48540171    2.7131344    2.7677159    3.5765928 
 3210000    1.8031293  0.071951332  0.043882201  0.052882961  -0.30044175   0.48289475    2.7045402    2.7484224    3.7226309 
 3220000    1.7891956   0.05823727  0.048625831  0.047308224  -0.28990173   0.48257922    2.6836409    2.7322668    3.5207892 
 3230000    1.7751138  0.055029786  0.033179995  0.052793441  -0.30403835    0.4765161    2.6625195    2.6956995    3.4407932 
 3240000    1.7597529  0.059580224  0.042818922  0.051727329  -0.30755938   0.48971122    2.6394793    2.6822982     3.489004 
 3250000     1.769841  0.038807313  0.031910599  0.053179872  -0.30621011   0.47612398    2.6546106    2.6865212    3.2119655 
 3260000    1.7606101  0.041008318  0.022528741  0.048737803  -0.30780986   0.47340695    2.6407651    2.6632939    3.2185393 
 3270000    1.7383807  0.036819215  0.033467611  0.053046298  -0.30622905   0.47873799    2.6074228    2.6408905    3.1394162 
 3280000    1.7095449  0.053713241  0.022736653  0.050708892  -0.30560041   0.46935187    2.5641717    2.5869083    3.3141762 
 3290000     1.717141  0.022664882 0.0077072299  0.048986394  -0.31661195   0.46762711    2.5755651    2.5832723    2.8901509 
 3300000    1.7042557  0.064323897 -0.0084436095   0.04997436  -0.32635691   0.46073153    2.5562382    2.5477946    3.4187289 
 3310000    1.7153606  0.060716994 0.0076260604  0.049660415  -0.31444389   0.46434323    2.5728947    2.5805208    3.4026183 
 3320000    1.6851485   0.07899246 -0.0043839231  0.048339847  -0.31297932   0.45207469    2.5275792    2.5231953    3.5927394 
 3330000    1.6852125  0.044120131 -0.022886025  0.048661368  -0.33321498   0.45440816    2.5276752    2.5047892     3.102168 
 3340000    1.6521349  0.062639813 -0.013407234   0.04600588   -0.3231777   0.45509534    2.4780615    2.4646543    3.3127864 
 3350000    1.6507538  0.035538699  -0.02602607  0.048457573    -0.336206    0.4540502      2.47599    2.4499639    2.9311517 
 3360000    1.6351617   0.02076926 -0.020847439  0.047866187  -0.32457092   0.44764952    2.4526031    2.4317557    2.7129678 
 3370000    1.6338419  0.025103057 -0.038707245  0.050721423  -0.33844479   0.44206893    2.4506236    2.4119164    2.7518074 
 3380000    1.6123028  0.057880074 -0.042538145  0.049993047  -0.34413719   0.44347322    2.4183168    2.3757786    3.1594647 
 3390000    1.6015183  0.055141882 -0.053544984  0.049690194  -0.34651548   0.43600905     2.402141     2.348596    3.0952074 
 3400000    1.5941433   0.04575018 -0.062147649  0.049226219  -0.34832299   0.42956832     2.391079    2.3289314    2.9483808 
 3410000    1.6037862  0.043374977 -0.062239599  0.047589993  -0.34156238   0.42459294    2.4055427    2.3433031    2.9305927 
 3420000     1.595132  0.035719451 -0.055137021  0.048829957   -0.3465629   0.43605705    2.3925621     2.337425    2.8210602 
 3430000    1.5728465  0.035027115 -0.078170622  0.047103443  -0.35568118   0.42277394    2.3591357    2.2809651    2.7552261 
 3440000    1.5537732  0.056727029 -0.073988662  0.046776659   -0.3553949   0.42736442    2.3305275    2.2565388    3.0246129 
 3450000    1.5591614  0.067006139 -0.083754307  0.043591909  -0.35204105   0.41710539    2.3386093     2.254855    3.1621064 
 3460000    1.5488586  0.028218538 -0.090433686  0.047971562    -0.366004   0.42038805     2.323156    2.2327223    2.6147964 
 3470000    1.5288983  0.071082986 -0.080325292  0.050132588  -0.35421275   0.41717036    2.2932171    2.2128918     3.175343 
 3480000    1.5270156  0.039984381 -0.090426231  0.046008898   -0.3541693   0.41070817    2.2903932     2.199967    2.7413485 
 3490000    1.5170305  0.037752077 -0.098047043  0.044627813  -0.36452393    0.4146579    2.2754165    2.1773695     2.688526 
 3500000    1.5288697  0.027185252 -0.096792774  0.047884972  -0.36087435    0.4092946    2.2931743    2.1963815    2.5644651 
 3510000    1.5111234  0.065236063  -0.10416242  0.045776712   -0.3664418   0.40908221    2.2665563    2.1623938    3.0456787 
 3520000    1.5019146  0.041711609  -0.10845071  0.045436237  -0.37287424   0.41194178    2.2527438    2.1442931     2.709061 
 3530000    1.4910637   0.01616678    -0.123114  0.045493683  -0.37816702   0.40314221    2.2364686    2.1133545    2.3322499 
 3540000    1.4572323  0.035206702  -0.12818954  0.045978889  -0.37461416   0.39367557    2.1857243    2.0575347    2.5342273 
 3550000    1.4620936  0.048180471    -0.138257  0.045426153  -0.38166318     0.391205    2.1930158    2.0547588    2.7071139 
 3560000     1.445001  0.062918506  -0.12450888  0.047786428  -0.37316661   0.39433251    2.1673783    2.0428695     2.894775 
 3570000    1.4389684  0.060017396    -0.144883  0.042777903  -0.38406461   0.38991456    2.1583299    2.0134469     2.826072 
 3580000    1.4175132  0.016886849  -0.14880515  0.044379745  -0.38487715    0.3854698     2.126149    1.9773439    2.2059888 
 3590000    1.4165214  0.007303726  -0.14203854  0.045296665  -0.38304926   0.38909685    2.1246614    1.9826229     2.081514 
 3600000    1.4078326  0.047192122  -0.15775367  0.048135424  -0.39330605   0.37989548     2.111629    1.9538753    2.5928484 
 3610000    1.3913672  0.064852072  -0.17050587  0.044679359  -0.39912272   0.37773919    2.0869322    1.9164263    2.7945121 
 3620000    1.3828492  0.082829384  -0.17873084  0.048092215  -0.40655721   0.37335396    2.0741559    1.8954251    3.0169204 
 3630000    1.3777147  0.049773973  -0.17548045  0.042333968  -0.40447824   0.38041761    2.0664547    1.8909742    2.5649051 
 3640000    1.3499405  0.070349052  -0.19591111  0.045985901  -0.40983132   0.36152467    2.0247958    1.8288847    2.7813985 
 3650000    1.3569373   0.04606929   -0.2150508  0.042336421  -0.41695958   0.35407608    2.0352903    1.8202395    2.4440096 
 3660000    1.3455007  0.034362502  -0.20340828  0.045859205   -0.4148414   0.35933217    2.0181363     1.814728    2.2799903 
 3670000    1.3388296 -0.0011603533  -0.20654337  0.044805135  -0.41621438    0.3590044    2.0081303     1.801587     1.785876 
 3680000    1.3355184  0.028126506  -0.21580658  0.044320593  -0.41888651   0.35256769    2.0031638    1.7873572    2.1681851 
 3690000    1.3075948  0.032242537  -0.20992362  0.045598483  -0.42007173   0.35815087    1.9612808    1.7513572    2.1879155 
 3700000     1.292079  0.020797072  -0.22613575   0.04246747   -0.4316776   0.35735809    1.9380084    1.7118726    1.9934613 
 3710000    1.2970053  0.049408976  -0.22835418   0.04720749  -0.43740745   0.35647684    1.9453975    1.7170433    2.3860322 
 3720000    1.2812905  0.033517765  -0.23980552  0.041201809  -0.43093884   0.34378662    1.9218266    1.6820211    2.1358458 
 3730000     1.275812  0.037112101  -0.24903403  0.044494805  -0.44940638   0.35004002    1.9136093    1.6645752    2.1670666 
 3740000      1.26776  0.026706522  -0.24933514  0.042941035  -0.44371733   0.34558119    1.9015319    1.6521968    2.0137984 
 3750000    1.2617312  0.064020944  -0.26492093  0.048234896  -0.45639127   0.33871513    1.8924893    1.6275684    2.4944008 
 3760000    1.2477304  0.041553561  -0.27013882  0.043745849  -0.45041622   0.33104146    1.8714893    1.6013505    2.1639784 
 3770000    1.2372014  0.049406419  -0.25242864  0.043818025  -0.43812925   0.33573185    1.8556966     1.603268    2.2722222 
 3780000    1.2510913   0.01150328  -0.26616212  0.044617393  -0.45026229   0.33404043    1.8765303    1.6103682    1.7661206 
 3790000    1.2248673  0.018856993  -0.27487663  0.044335941  -0.45737476   0.33298768    1.8371966      1.56232    1.8176403 
 3800000    1.2016446  0.029211272  -0.28106113  0.043138246  -0.45945498   0.32893368    1.8023645    1.5213034    1.9168189 
 3810000    1.2021274  0.067790747  -0.29286535  0.040813218    -0.464297   0.32474147    1.8030887    1.5102233    2.4280982 
 3820000    1.1926609   0.03009411  -0.30732233  0.041067364   -0.4694033   0.31560861    1.7888897    1.4815674    1.8890363 
 3830000    1.1622982  0.036169954  -0.30714429   0.04219627  -0.46630115   0.31215193    1.7433482    1.4362039    1.9259387 
 3840000    1.1555467  0.023105003  -0.31633201  0.040418607  -0.47905736   0.31737832    1.7332216    1.4168896    1.7297273 
 3850000    1.1566371  0.011911743  -0.32136226  0.041808104   -0.4814822   0.31189082    1.7348571    1.4134949    1.5747778 
 3860000    1.1447257  0.022430517  -0.32978101  0.045832731  -0.48444849   0.30421966     1.716991      1.38721    1.6909153 
 3870000    1.1421011  0.023645924  -0.33993822  0.039932073  -0.49738162   0.31294181    1.7130544    1.3731161    1.6932778 
 3880000    1.1299432 -0.0061776521  -0.34504629  0.045425104  -0.50539235   0.30983777    1.6948185    1.3497722    1.2661279 
 3890000    1.1065577 -0.0024386598  -0.35454059  0.041290673  -0.49985528   0.29869743    1.6597422    1.3052016    1.2721826 
 3900000    1.1093147  0.013569727  -0.35441563  0.042721504  -0.49773226   0.29570468    1.6638775    1.3094619    1.4931936 
 3910000    1.0914807  0.029728398  -0.37350814  0.039518489  -0.51037009   0.29260067     1.637128    1.2636199    1.6661372 
 3920000    1.0839603  0.034223706  -0.36681693  0.044149235  -0.50469661   0.28875634    1.6258481    1.2590312    1.7224142 
 3930000    1.0736804  0.024608222  -0.36073999  0.041556098  -0.49962704   0.29228979    1.6104291    1.2496891    1.5828801 
 3940000    1.0584988  0.027540329  -0.37735912  0.039111078  -0.51315437   0.29166504     1.587658    1.2102989    1.5831902 
 3950000     1.056453  0.029098802  -0.39991826  0.042114581  -0.52795778   0.28194367    1.5845895    1.1846712    1.5786639 
 3960000    1.0466791  0.010415012  -0.39306415  0.039281161  -0.52162242   0.28481448    1.5699294    1.1768653    1.3178827 
 3970000    1.0403615   0.03027476  -0.41699054  0.042533729  -0.53895648   0.27469564    1.5604537    1.1434631    1.5533781 
 3980000    1.0321622  0.027703487  -0.42077011  0.039836431  -0.54043217   0.27469906    1.5481553    1.1273852    1.5024855 
 3990000     1.014514 -0.0032353529  -0.43108281  0.040145309   -0.5432942   0.26786356    1.5216845    1.0906017    1.0467956 
 4000000    1.0169558  0.022003168   -0.4336487  0.041574847  -0.55295058   0.27331307    1.5253471    1.0916984    1.3896174 
 4001000    1.0125472  0.037110205  -0.42866344   0.03846182  -0.54139989   0.26948996    1.5187345    1.0900711    1.5925367 
Loop time of 179338 on 16 procs for 2000000 steps with 17602 atoms

Performance: 963.541 tau/day, 11.152 timesteps/s
99.4% CPU use with 16 MPI tasks x 1 OpenMP threads

MPI task timing breakdown:
Section |  min time  |  avg time  |  max time  |%varavg| %total
---------------------------------------------------------------
Pair    | 75670      | 1.0384e+05 | 1.3664e+05 |5761.5 | 57.90
Bond    | 29.338     | 48.307     | 72.275     | 160.7 |  0.03
Kspace  | 28103      | 60075      | 88472      |7539.2 | 33.50
Neigh   | 6669.3     | 6723.7     | 6767.7     |  42.0 |  3.75
Comm    | 7037.3     | 7762.1     | 8241.3     | 419.1 |  4.33
Output  | 2.8532     | 2.8688     | 2.883      |   0.4 |  0.00
Modify  | 186.77     | 250.4      | 308.79     | 220.5 |  0.14
Other   |            | 632.7      |            |       |  0.35

Nlocal:    1100.12 ave 2007 max 581 min
Histogram: 1 4 2 4 2 0 1 0 0 2
Nghost:    20301.1 ave 21447 max 18583 min
Histogram: 1 0 1 0 6 0 2 1 2 3
Neighs:    1.54917e+06 ave 3.28566e+06 max 634408 min
Histogram: 3 3 2 2 3 0 0 1 1 1

Total # of neighbors = 24786652
Ave neighs/atom = 1408.17
Ave special neighs/atom = 1.07261
Neighbor list builds = 86335
Dangerous builds = 0
System init for write_restart ...
PPPM initialization ...
  using 12-bit tables for long-range coulomb (src/kspace.cpp:319)
  G vector (1/distance) = 0.162332
  grid = 36 36 36
  stencil order = 5
  estimated absolute RMS force accuracy = 9.61493e-06
  estimated relative force accuracy = 9.61493e-06
  using single precision FFTs
  3d grid and FFT values/proc = 7406 3888
Total wall time: 49:48:58
